# Forces     
# CofR       : (5.000000e-02 0.000000e+00 0.000000e+00)
# Time       forces(pressure viscous porous) moment(pressure viscous porous)
0.005        	((3.025949e+04 4.450160e-02 -2.216057e-18) (3.063394e-01 2.707798e-07 -3.921301e-18) (0.000000e+00 0.000000e+00 0.000000e+00)) ((-1.199900e-17 -4.302176e-18 -2.398576e-03) (2.516439e-21 -3.622444e-19 -1.547530e-08) (0.000000e+00 0.000000e+00 0.000000e+00))
0.01         	((-2.914282e+02 -4.974976e-02 9.711847e-20) (3.082553e-01 -4.334267e-08 -2.956575e-20) (0.000000e+00 0.000000e+00 0.000000e+00)) ((-4.494967e-21 -7.167131e-21 2.494747e-03) (5.331932e-22 1.261864e-20 -1.725076e-10) (0.000000e+00 0.000000e+00 0.000000e+00))
0.015        	((-2.127374e+02 -2.063209e-03 9.278997e-20) (3.098534e-01 -6.431089e-08 -4.507177e-20) (0.000000e+00 0.000000e+00 0.000000e+00)) ((-2.193412e-21 -6.171406e-21 1.100633e-04) (5.986446e-22 1.134095e-20 9.990068e-10) (0.000000e+00 0.000000e+00 0.000000e+00))
0.02         	((-1.569993e+02 -2.243874e-04 8.885276e-20) (3.112432e-01 -7.155849e-08 -5.960970e-20) (0.000000e+00 0.000000e+00 0.000000e+00)) ((-4.514649e-22 -5.437303e-21 1.780558e-05) (5.325788e-22 1.011194e-20 1.428393e-09) (0.000000e+00 0.000000e+00 0.000000e+00))
0.025        	((-1.144804e+02 -9.869063e-04 8.506701e-20) (3.124947e-01 -7.876618e-08 -6.266093e-20) (0.000000e+00 0.000000e+00 0.000000e+00)) ((6.829478e-22 -4.885055e-21 5.562884e-05) (-8.905321e-23 9.543941e-21 1.838656e-09) (0.000000e+00 0.000000e+00 0.000000e+00))
0.03         	((-8.061635e+01 -1.396065e-03 8.172196e-20) (3.136567e-01 -8.843627e-08 -6.565083e-20) (0.000000e+00 0.000000e+00 0.000000e+00)) ((1.548084e-21 -4.441967e-21 7.582134e-05) (-5.076243e-22 8.993305e-21 2.377882e-09) (0.000000e+00 0.000000e+00 0.000000e+00))
0.035        	((-5.271799e+01 -1.163187e-03 7.877913e-20) (3.147609e-01 -8.901428e-08 -6.933753e-20) (0.000000e+00 0.000000e+00 0.000000e+00)) ((2.181933e-21 -4.074328e-21 6.394514e-05) (-7.511929e-22 8.445767e-21 2.463486e-09) (0.000000e+00 0.000000e+00 0.000000e+00))
0.04         	((-2.904508e+01 -2.291127e-03 7.604884e-20) (3.158288e-01 -1.133698e-07 -6.976145e-20) (0.000000e+00 0.000000e+00 0.000000e+00)) ((2.564697e-21 -3.767673e-21 1.201267e-04) (-1.068687e-21 8.127155e-21 3.750196e-09) (0.000000e+00 0.000000e+00 0.000000e+00))
0.045        	((-8.931498e+00 -2.492720e-03 7.375963e-20) (3.168758e-01 -1.320085e-07 -7.571792e-20) (0.000000e+00 0.000000e+00 0.000000e+00)) ((3.003482e-21 -3.492754e-21 1.300270e-04) (-9.422050e-22 7.494280e-21 4.764165e-09) (0.000000e+00 0.000000e+00 0.000000e+00))
0.05         	((8.769987e+00 -1.701019e-03 7.153573e-20) (3.179107e-01 -1.518802e-07 -7.575931e-20) (0.000000e+00 0.000000e+00 0.000000e+00)) ((3.289540e-21 -3.256443e-21 9.026707e-05) (-1.210943e-21 7.200587e-21 5.820082e-09) (0.000000e+00 0.000000e+00 0.000000e+00))
0.055        	((2.441516e+01 -1.073229e-03 6.955839e-20) (3.189398e-01 -1.627338e-07 -7.760243e-20) (0.000000e+00 0.000000e+00 0.000000e+00)) ((3.583566e-21 -3.039643e-21 5.872267e-05) (-1.193672e-21 6.803735e-21 6.407765e-09) (0.000000e+00 0.000000e+00 0.000000e+00))
0.06         	((3.859284e+01 -1.099400e-03 6.763466e-20) (3.199664e-01 -1.727062e-07 -7.627010e-20) (0.000000e+00 0.000000e+00 0.000000e+00)) ((3.770856e-21 -2.846019e-21 5.988008e-05) (-1.298954e-21 6.606918e-21 6.952665e-09) (0.000000e+00 0.000000e+00 0.000000e+00))
0.065        	((5.126918e+01 -1.237419e-03 6.589578e-20) (3.209936e-01 -1.823669e-07 -7.717980e-20) (0.000000e+00 0.000000e+00 0.000000e+00)) ((4.024218e-21 -2.662810e-21 6.664491e-05) (-1.356457e-21 6.296928e-21 7.484408e-09) (0.000000e+00 0.000000e+00 0.000000e+00))
0.07         	((6.280003e+01 -8.451826e-04 6.423751e-20) (3.220226e-01 -1.883515e-07 -7.782975e-20) (0.000000e+00 0.000000e+00 0.000000e+00)) ((4.253190e-21 -2.491702e-21 4.690345e-05) (-1.441604e-21 6.024159e-21 7.824643e-09) (0.000000e+00 0.000000e+00 0.000000e+00))
0.075        	((7.335375e+01 -9.795708e-04 6.265873e-20) (3.230537e-01 -1.945734e-07 -7.865821e-20) (0.000000e+00 0.000000e+00 0.000000e+00)) ((4.463573e-21 -2.329884e-21 5.349960e-05) (-1.505011e-21 5.763404e-21 8.176670e-09) (0.000000e+00 0.000000e+00 0.000000e+00))
0.08         	((8.307221e+01 -1.036758e-03 6.113936e-20) (3.240867e-01 -2.011594e-07 -7.949942e-20) (0.000000e+00 0.000000e+00 0.000000e+00)) ((4.651558e-21 -2.176106e-21 5.624071e-05) (-1.561256e-21 5.521683e-21 8.546786e-09) (0.000000e+00 0.000000e+00 0.000000e+00))
0.085        	((9.221945e+01 -1.673166e-03 5.962806e-20) (3.251204e-01 -2.096364e-07 -7.912202e-20) (0.000000e+00 0.000000e+00 0.000000e+00)) ((4.744455e-21 -2.031628e-21 8.794380e-05) (-1.518016e-21 5.371082e-21 9.020916e-09) (0.000000e+00 0.000000e+00 0.000000e+00))
0.09         	((1.004566e+02 -4.708374e-04 5.824050e-20) (3.261552e-01 -2.165602e-07 -8.127675e-20) (0.000000e+00 0.000000e+00 0.000000e+00)) ((4.953864e-21 -1.888231e-21 2.772075e-05) (-1.607396e-21 5.076599e-21 9.421165e-09) (0.000000e+00 0.000000e+00 0.000000e+00))
0.095        	((1.084130e+02 -1.640714e-03 5.680894e-20) (3.271888e-01 -2.252150e-07 -8.077320e-20) (0.000000e+00 0.000000e+00 0.000000e+00)) ((5.008599e-21 -1.755123e-21 8.610476e-05) (-1.575659e-21 4.953521e-21 9.898101e-09) (0.000000e+00 0.000000e+00 0.000000e+00))
0.1          	((1.155581e+02 -3.384595e-04 5.550288e-20) (3.282215e-01 -2.317721e-07 -8.301179e-20) (0.000000e+00 0.000000e+00 0.000000e+00)) ((5.197230e-21 -1.621846e-21 2.089277e-05) (-1.706188e-21 4.669693e-21 1.027515e-08) (0.000000e+00 0.000000e+00 0.000000e+00))
0.105        	((1.225286e+02 -1.754816e-03 5.415364e-20) (3.292507e-01 -2.419179e-07 -8.259384e-20) (0.000000e+00 0.000000e+00 0.000000e+00)) ((5.236642e-21 -1.498233e-21 9.160766e-05) (-1.729239e-21 4.557158e-21 1.082298e-08) (0.000000e+00 0.000000e+00 0.000000e+00))
0.11         	((1.288527e+02 -3.411351e-04 5.291823e-20) (3.302763e-01 -2.479417e-07 -8.436777e-20) (0.000000e+00 0.000000e+00 0.000000e+00)) ((5.378631e-21 -1.375076e-21 2.082901e-05) (-1.872123e-21 4.319501e-21 1.117013e-08) (0.000000e+00 0.000000e+00 0.000000e+00))
0.115        	((1.349772e+02 -1.352877e-03 5.169090e-20) (3.312961e-01 -2.565221e-07 -8.449121e-20) (0.000000e+00 0.000000e+00 0.000000e+00)) ((5.425027e-21 -1.260224e-21 7.131988e-05) (-1.953155e-21 4.190637e-21 1.163333e-08) (0.000000e+00 0.000000e+00 0.000000e+00))
0.12         	((1.406435e+02 -9.205118e-04 5.057692e-20) (3.323095e-01 -2.655234e-07 -8.567284e-20) (0.000000e+00 0.000000e+00 0.000000e+00)) ((5.516500e-21 -1.148998e-21 4.961044e-05) (-2.090154e-21 3.997783e-21 1.212502e-08) (0.000000e+00 0.000000e+00 0.000000e+00))
0.125        	((1.460793e+02 -1.178987e-03 4.951931e-20) (3.333145e-01 -2.734359e-07 -8.601874e-20) (0.000000e+00 0.000000e+00 0.000000e+00)) ((5.563508e-21 -1.043997e-21 6.244308e-05) (-2.201329e-21 3.845994e-21 1.255544e-08) (0.000000e+00 0.000000e+00 0.000000e+00))
0.13         	((1.511994e+02 -9.238782e-04 4.853567e-20) (3.343101e-01 -2.808290e-07 -8.652772e-20) (0.000000e+00 0.000000e+00 0.000000e+00)) ((5.619751e-21 -9.426735e-22 4.959877e-05) (-2.327585e-21 3.665237e-21 1.296338e-08) (0.000000e+00 0.000000e+00 0.000000e+00))
0.135        	((1.561093e+02 -1.103481e-03 4.756234e-20) (3.352945e-01 -2.880862e-07 -8.656511e-20) (0.000000e+00 0.000000e+00 0.000000e+00)) ((5.658505e-21 -8.433003e-22 5.848973e-05) (-2.443101e-21 3.488015e-21 1.336311e-08) (0.000000e+00 0.000000e+00 0.000000e+00))
0.14         	((1.608428e+02 -1.030561e-03 4.654474e-20) (3.362660e-01 -2.949913e-07 -8.644420e-20) (0.000000e+00 0.000000e+00 0.000000e+00)) ((5.696945e-21 -7.416808e-22 5.475229e-05) (-2.557619e-21 3.296526e-21 1.374839e-08) (0.000000e+00 0.000000e+00 0.000000e+00))
0.145        	((1.655234e+02 -9.701689e-04 4.538921e-20) (3.372219e-01 -3.008057e-07 -8.608297e-20) (0.000000e+00 0.000000e+00 0.000000e+00)) ((5.732939e-21 -6.323097e-22 5.163353e-05) (-2.665626e-21 3.100470e-21 1.408008e-08) (0.000000e+00 0.000000e+00 0.000000e+00))
0.15         	((1.701793e+02 -1.058623e-03 4.407177e-20) (3.381598e-01 -3.071939e-07 -8.558332e-20) (0.000000e+00 0.000000e+00 0.000000e+00)) ((5.770458e-21 -5.138324e-22 5.594833e-05) (-2.768929e-21 2.897301e-21 1.444427e-08) (0.000000e+00 0.000000e+00 0.000000e+00))
0.155        	((1.748213e+02 -1.138766e-03 4.258784e-20) (3.390773e-01 -3.140589e-07 -8.496777e-20) (0.000000e+00 0.000000e+00 0.000000e+00)) ((5.809924e-21 -3.859121e-22 5.983883e-05) (-2.866720e-21 2.689712e-21 1.483783e-08) (0.000000e+00 0.000000e+00 0.000000e+00))
0.16         	((1.794473e+02 -1.078806e-03 4.094511e-20) (3.399722e-01 -3.203936e-07 -8.429257e-20) (0.000000e+00 0.000000e+00 0.000000e+00)) ((5.851745e-21 -2.492222e-22 5.671610e-05) (-2.959558e-21 2.478572e-21 1.521083e-08) (0.000000e+00 0.000000e+00 0.000000e+00))
0.165        	((1.840414e+02 -9.673760e-04 3.916388e-20) (3.408424e-01 -3.258721e-07 -8.359711e-20) (0.000000e+00 0.000000e+00 0.000000e+00)) ((5.896017e-21 -1.049165e-22 5.101285e-05) (-3.047718e-21 2.265423e-21 1.554607e-08) (0.000000e+00 0.000000e+00 0.000000e+00))
0.17         	((1.885763e+02 -9.908540e-04 3.727650e-20) (3.416861e-01 -3.315638e-07 -8.291711e-20) (0.000000e+00 0.000000e+00 0.000000e+00)) ((5.941229e-21 4.466455e-23 5.204985e-05) (-3.131587e-21 2.051242e-21 1.589721e-08) (0.000000e+00 0.000000e+00 0.000000e+00))
0.175        	((1.930145e+02 -7.601474e-04 3.532106e-20) (3.425019e-01 -3.349088e-07 -8.226222e-20) (0.000000e+00 0.000000e+00 0.000000e+00)) ((5.983712e-21 1.961798e-22 4.037445e-05) (-3.211319e-21 1.836845e-21 1.613464e-08) (0.000000e+00 0.000000e+00 0.000000e+00))
0.18         	((1.973074e+02 -9.206061e-04 3.334896e-20) (3.432888e-01 -3.398764e-07 -8.165275e-20) (0.000000e+00 0.000000e+00 0.000000e+00)) ((6.024123e-21 3.472346e-22 4.825709e-05) (-3.287156e-21 1.623048e-21 1.646096e-08) (0.000000e+00 0.000000e+00 0.000000e+00))
0.185        	((2.014114e+02 -8.794345e-04 3.140977e-20) (3.440459e-01 -3.446759e-07 -8.107538e-20) (0.000000e+00 0.000000e+00 0.000000e+00)) ((6.062217e-21 4.952334e-22 4.606084e-05) (-3.359451e-21 1.412798e-21 1.678523e-08) (0.000000e+00 0.000000e+00 0.000000e+00))
0.19         	((2.052850e+02 -8.488025e-04 2.954147e-20) (3.447727e-01 -3.491871e-07 -8.050562e-20) (0.000000e+00 0.000000e+00 0.000000e+00)) ((6.094283e-21 6.368626e-22 4.439633e-05) (-3.428400e-21 1.207356e-21 1.710129e-08) (0.000000e+00 0.000000e+00 0.000000e+00))
0.195        	((2.088956e+02 -8.430030e-04 2.777549e-20) (3.454690e-01 -3.535237e-07 -7.993009e-20) (0.000000e+00 0.000000e+00 0.000000e+00)) ((6.119005e-21 7.699852e-22 4.398001e-05) (-3.494428e-21 1.007327e-21 1.741506e-08) (0.000000e+00 0.000000e+00 0.000000e+00))
0.2          	((2.122197e+02 -8.120293e-04 2.613097e-20) (3.461347e-01 -3.575391e-07 -7.933401e-20) (0.000000e+00 0.000000e+00 0.000000e+00)) ((6.135418e-21 8.932700e-22 4.231268e-05) (-3.557625e-21 8.129246e-22 1.771943e-08) (0.000000e+00 0.000000e+00 0.000000e+00))
0.205        	((2.152477e+02 -8.750410e-04 2.461486e-20) (3.467700e-01 -3.611763e-07 -7.870483e-20) (0.000000e+00 0.000000e+00 0.000000e+00)) ((6.143101e-21 1.006185e-21 4.535273e-05) (-3.618014e-21 6.241305e-22 1.801241e-08) (0.000000e+00 0.000000e+00 0.000000e+00))
0.21         	((2.179871e+02 -7.915557e-04 2.322386e-20) (3.473749e-01 -3.646147e-07 -7.803002e-20) (0.000000e+00 0.000000e+00 0.000000e+00)) ((6.142299e-21 1.108950e-21 4.107583e-05) (-3.676093e-21 4.412603e-22 1.830486e-08) (0.000000e+00 0.000000e+00 0.000000e+00))
0.215        	((2.204516e+02 -6.876694e-04 2.194751e-20) (3.479495e-01 -3.671823e-07 -7.729939e-20) (0.000000e+00 0.000000e+00 0.000000e+00)) ((6.133537e-21 1.202245e-21 3.578615e-05) (-3.731834e-21 2.642624e-22 1.855948e-08) (0.000000e+00 0.000000e+00 0.000000e+00))
0.22         	((2.226608e+02 -7.495472e-04 2.077118e-20) (3.484940e-01 -3.701885e-07 -7.650555e-20) (0.000000e+00 0.000000e+00 0.000000e+00)) ((6.117684e-21 1.287104e-21 3.879105e-05) (-3.785245e-21 9.297935e-23 1.884211e-08) (0.000000e+00 0.000000e+00 0.000000e+00))
0.225        	((2.246374e+02 -7.024111e-04 1.967899e-20) (3.490084e-01 -3.728220e-07 -7.564254e-20) (0.000000e+00 0.000000e+00 0.000000e+00)) ((6.095700e-21 1.364662e-21 3.635069e-05) (-3.836238e-21 -7.284738e-23 1.911149e-08) (0.000000e+00 0.000000e+00 0.000000e+00))
0.23         	((2.264058e+02 -7.946140e-04 1.865544e-20) (3.494927e-01 -3.760271e-07 -7.470526e-20) (0.000000e+00 0.000000e+00 0.000000e+00)) ((6.068440e-21 1.436004e-21 4.088176e-05) (-3.884719e-21 -2.334422e-22 1.941596e-08) (0.000000e+00 0.000000e+00 0.000000e+00))
0.235        	((2.279906e+02 -6.536333e-04 1.768690e-20) (3.499469e-01 -3.778228e-07 -7.368792e-20) (0.000000e+00 0.000000e+00 0.000000e+00)) ((6.037366e-21 1.502380e-21 3.375733e-05) (-3.930660e-21 -3.888078e-22 1.965713e-08) (0.000000e+00 0.000000e+00 0.000000e+00))
0.24         	((2.294131e+02 -7.207309e-04 1.676144e-20) (3.503710e-01 -3.797007e-07 -7.259059e-20) (0.000000e+00 0.000000e+00 0.000000e+00)) ((6.002452e-21 1.564369e-21 3.703977e-05) (-3.973875e-21 -5.393638e-22 1.990855e-08) (0.000000e+00 0.000000e+00 0.000000e+00))
0.245        	((2.306933e+02 -4.381097e-04 1.586666e-20) (3.507651e-01 -3.790963e-07 -7.140023e-20) (0.000000e+00 0.000000e+00 0.000000e+00)) ((5.963087e-21 1.622372e-21 2.283846e-05) (-4.013888e-21 -6.853960e-22 2.004230e-08) (0.000000e+00 0.000000e+00 0.000000e+00))
0.25         	((2.318356e+02 -1.027901e-03 1.500547e-20) (3.511291e-01 -3.845507e-07 -7.015235e-20) (0.000000e+00 0.000000e+00 0.000000e+00)) ((5.926317e-21 1.678841e-21 5.226035e-05) (-4.050692e-21 -8.276836e-22 2.049028e-08) (0.000000e+00 0.000000e+00 0.000000e+00))
0.255        	((2.328693e+02 -2.163009e-04 1.415496e-20) (3.514632e-01 -3.819873e-07 -6.879211e-20) (0.000000e+00 0.000000e+00 0.000000e+00)) ((5.882182e-21 1.731324e-21 1.161352e-05) (-4.083511e-21 -9.656892e-22 2.053466e-08) (0.000000e+00 0.000000e+00 0.000000e+00))
0.26         	((2.337845e+02 -1.164163e-03 1.333140e-20) (3.517672e-01 -3.885495e-07 -6.739758e-20) (0.000000e+00 0.000000e+00 0.000000e+00)) ((5.844430e-21 1.783977e-21 5.894208e-05) (-4.112577e-21 -1.101282e-21 2.104960e-08) (0.000000e+00 0.000000e+00 0.000000e+00))
0.265        	((2.346172e+02 -5.907224e-05 1.250462e-20) (3.520415e-01 -3.846234e-07 -6.588126e-20) (0.000000e+00 0.000000e+00 0.000000e+00)) ((5.797337e-21 1.832707e-21 3.623042e-06) (-4.136881e-21 -1.232992e-21 2.103485e-08) (0.000000e+00 0.000000e+00 0.000000e+00))
0.27         	((2.353487e+02 -1.210472e-03 1.170024e-20) (3.522859e-01 -3.913067e-07 -6.435264e-20) (0.000000e+00 0.000000e+00 0.000000e+00)) ((5.759454e-21 1.882955e-21 6.113066e-05) (-4.156878e-21 -1.363229e-21 2.156555e-08) (0.000000e+00 0.000000e+00 0.000000e+00))
0.275        	((2.360219e+02 -5.453126e-06 1.088201e-20) (3.525006e-01 -3.869834e-07 -6.270074e-20) (0.000000e+00 0.000000e+00 0.000000e+00)) ((5.711141e-21 1.929608e-21 8.166813e-07) (-4.171416e-21 -1.489623e-21 2.154041e-08) (0.000000e+00 0.000000e+00 0.000000e+00))
0.28         	((2.366138e+02 -1.066098e-03 1.007770e-20) (3.526858e-01 -3.923271e-07 -6.104819e-20) (0.000000e+00 0.000000e+00 0.000000e+00)) ((5.672687e-21 1.978533e-21 5.378757e-05) (-4.181261e-21 -1.615003e-21 2.201080e-08) (0.000000e+00 0.000000e+00 0.000000e+00))
0.285        	((2.371691e+02 -1.513475e-04 9.248800e-21) (3.528414e-01 -3.891222e-07 -5.928531e-20) (0.000000e+00 0.000000e+00 0.000000e+00)) ((5.625549e-21 2.025134e-21 7.987476e-06) (-4.185445e-21 -1.736777e-21 2.204995e-08) (0.000000e+00 0.000000e+00 0.000000e+00))
0.29         	((2.376759e+02 -8.655049e-04 8.414625e-21) (3.529675e-01 -3.924309e-07 -5.752319e-20) (0.000000e+00 0.000000e+00 0.000000e+00)) ((5.587194e-21 2.074649e-21 4.363323e-05) (-4.184854e-21 -1.857582e-21 2.242468e-08) (0.000000e+00 0.000000e+00 0.000000e+00))
0.295        	((2.381879e+02 -3.209570e-04 7.532023e-21) (3.530639e-01 -3.907339e-07 -5.567740e-20) (0.000000e+00 0.000000e+00 0.000000e+00)) ((5.543866e-21 2.124457e-21 1.634106e-05) (-4.178932e-21 -1.975025e-21 2.254861e-08) (0.000000e+00 0.000000e+00 0.000000e+00))
0.3          	((2.387327e+02 -7.156493e-04 6.589819e-21) (3.531303e-01 -3.924443e-07 -5.383652e-20) (0.000000e+00 0.000000e+00 0.000000e+00)) ((5.509408e-21 2.180038e-21 3.600778e-05) (-4.168745e-21 -2.090914e-21 2.284983e-08) (0.000000e+00 0.000000e+00 0.000000e+00))
0.305        	((2.384000e+02 -3.054238e-04 6.260257e-21) (3.531719e-01 -3.915453e-07 -5.171940e-20) (0.000000e+00 0.000000e+00 0.000000e+00)) ((5.443618e-21 2.192414e-21 1.547357e-05) (-4.147217e-21 -2.211743e-21 2.301849e-08) (0.000000e+00 0.000000e+00 0.000000e+00))
0.31         	((2.372289e+02 -6.612698e-04 6.460402e-21) (3.531936e-01 -3.920923e-07 -4.948699e-20) (0.000000e+00 0.000000e+00 0.000000e+00)) ((5.355025e-21 2.168616e-21 3.328587e-05) (-4.115710e-21 -2.331498e-21 2.325651e-08) (0.000000e+00 0.000000e+00 0.000000e+00))
0.315        	((2.369095e+02 -4.263660e-04 5.959711e-21) (3.531900e-01 -3.917487e-07 -4.716000e-20) (0.000000e+00 0.000000e+00 0.000000e+00)) ((5.292478e-21 2.189508e-21 2.150200e-05) (-4.082476e-21 -2.450945e-21 2.345496e-08) (0.000000e+00 0.000000e+00 0.000000e+00))
0.32         	((2.351550e+02 -3.036446e-04 6.399415e-21) (3.531694e-01 -3.907400e-07 -4.438531e-20) (0.000000e+00 0.000000e+00 0.000000e+00)) ((5.188287e-21 2.146501e-21 1.541291e-05) (-4.032702e-21 -2.584323e-21 2.361945e-08) (0.000000e+00 0.000000e+00 0.000000e+00))
0.325        	((2.333348e+02 -4.744590e-04 7.007610e-21) (3.531331e-01 -3.904670e-07 -4.212908e-20) (0.000000e+00 0.000000e+00 0.000000e+00)) ((5.072173e-21 2.089937e-21 2.395551e-05) (-3.993922e-21 -2.683865e-21 2.381984e-08) (0.000000e+00 0.000000e+00 0.000000e+00))
0.33         	((2.323594e+02 -6.790562e-04 6.665634e-21) (3.530739e-01 -3.912858e-07 -3.831634e-20) (0.000000e+00 0.000000e+00 0.000000e+00)) ((4.994964e-21 2.095633e-21 3.417274e-05) (-3.960949e-21 -2.852465e-21 2.407876e-08) (0.000000e+00 0.000000e+00 0.000000e+00))
0.335        	((2.319593e+02 -4.557228e-04 5.718681e-21) (3.529879e-01 -3.906968e-07 -3.322680e-20) (0.000000e+00 0.000000e+00 0.000000e+00)) ((4.942975e-21 2.140749e-21 2.297816e-05) (-3.943636e-21 -3.077668e-21 2.427030e-08) (0.000000e+00 0.000000e+00 0.000000e+00))
0.34         	((2.306885e+02 -3.491729e-04 5.844447e-21) (3.528835e-01 -3.897687e-07 -3.652082e-20) (0.000000e+00 0.000000e+00 0.000000e+00)) ((4.843195e-21 2.111984e-21 1.758855e-05) (-3.831297e-21 -2.907642e-21 2.444601e-08) (0.000000e+00 0.000000e+00 0.000000e+00))
0.345        	((2.296510e+02 -5.023103e-04 5.596063e-21) (3.527567e-01 -3.892602e-07 -3.433056e-20) (0.000000e+00 0.000000e+00 0.000000e+00)) ((4.759842e-21 2.111246e-21 2.521702e-05) (-3.768391e-21 -2.985649e-21 2.464460e-08) (0.000000e+00 0.000000e+00 0.000000e+00))
0.35         	((2.295297e+02 -5.935763e-04 4.712132e-21) (3.526016e-01 -3.890941e-07 -3.190302e-20) (0.000000e+00 0.000000e+00 0.000000e+00)) ((4.706881e-21 2.155855e-21 2.971091e-05) (-3.713880e-21 -3.072174e-21 2.486166e-08) (0.000000e+00 0.000000e+00 0.000000e+00))
0.355        	((2.294247e+02 -6.883696e-04 4.137703e-21) (3.524178e-01 -3.900344e-07 -2.873244e-20) (0.000000e+00 0.000000e+00 0.000000e+00)) ((4.648191e-21 2.187776e-21 3.438861e-05) (-3.657307e-21 -3.189890e-21 2.513731e-08) (0.000000e+00 0.000000e+00 0.000000e+00))
0.36         	((2.290699e+02 -1.055266e-03 5.926253e-21) (3.522054e-01 -3.916642e-07 -2.155679e-20) (0.000000e+00 0.000000e+00 0.000000e+00)) ((4.528568e-21 2.112620e-21 5.271965e-05) (-3.590281e-21 -3.487989e-21 2.545058e-08) (0.000000e+00 0.000000e+00 0.000000e+00))
0.365        	((2.291157e+02 -1.878764e-05 1.746605e-21) (3.519667e-01 -3.888235e-07 -2.467698e-20) (0.000000e+00 0.000000e+00 0.000000e+00)) ((4.565482e-21 2.304082e-21 7.710455e-07) (-3.544143e-21 -3.309624e-21 2.554049e-08) (0.000000e+00 0.000000e+00 0.000000e+00))
0.37         	((2.290488e+02 -9.082096e-04 -2.774644e-22) (3.517008e-01 -3.924618e-07 -2.382767e-20) (0.000000e+00 0.000000e+00 0.000000e+00)) ((4.546729e-21 2.400086e-21 4.515837e-05) (-3.490657e-21 -3.309018e-21 2.595597e-08) (0.000000e+00 0.000000e+00 0.000000e+00))
0.375        	((2.288353e+02 -5.735612e-04 -1.428206e-21) (3.514080e-01 -3.927242e-07 -2.153718e-20) (0.000000e+00 0.000000e+00 0.000000e+00)) ((4.505294e-21 2.455611e-21 2.836137e-05) (-3.433276e-21 -3.370916e-21 2.620079e-08) (0.000000e+00 0.000000e+00 0.000000e+00))
0.38         	((2.286364e+02 -5.375077e-04 -2.515494e-21) (3.510884e-01 -3.924061e-07 -1.910245e-20) (0.000000e+00 0.000000e+00 0.000000e+00)) ((4.463288e-21 2.508743e-21 2.649497e-05) (-3.375133e-21 -3.435585e-21 2.641623e-08) (0.000000e+00 0.000000e+00 0.000000e+00))
0.385        	((2.279615e+02 -4.019431e-04 -3.180317e-21) (3.507453e-01 -3.927073e-07 -1.648421e-20) (0.000000e+00 0.000000e+00 0.000000e+00)) ((4.404424e-21 2.534415e-21 1.967293e-05) (-3.314508e-21 -3.504085e-21 2.666100e-08) (0.000000e+00 0.000000e+00 0.000000e+00))
0.39         	((2.269049e+02 -5.632592e-04 -3.548849e-21) (3.503813e-01 -3.927145e-07 -1.370930e-20) (0.000000e+00 0.000000e+00 0.000000e+00)) ((4.331748e-21 2.539894e-21 2.770959e-05) (-3.251780e-21 -3.574168e-21 2.689306e-08) (0.000000e+00 0.000000e+00 0.000000e+00))
0.395        	((2.263628e+02 -5.364525e-04 -4.387202e-21) (3.499934e-01 -3.927285e-07 -1.098460e-20) (0.000000e+00 0.000000e+00 0.000000e+00)) ((4.277870e-21 2.576039e-21 2.631765e-05) (-3.191123e-21 -3.637956e-21 2.712457e-08) (0.000000e+00 0.000000e+00 0.000000e+00))
0.4          	((2.258692e+02 -5.815635e-04 -5.268390e-21) (3.495817e-01 -3.928825e-07 -8.183620e-21) (0.000000e+00 0.000000e+00 0.000000e+00)) ((4.225516e-21 2.614913e-21 2.851946e-05) (-3.130979e-21 -3.702063e-21 2.736326e-08) (0.000000e+00 0.000000e+00 0.000000e+00))
0.405        	((2.240300e+02 -3.925699e-04 -5.047452e-21) (3.491548e-01 -3.930389e-07 -4.934024e-21) (0.000000e+00 0.000000e+00 0.000000e+00)) ((4.125267e-21 2.580031e-21 1.907028e-05) (-3.065032e-21 -3.780151e-21 2.760041e-08) (0.000000e+00 0.000000e+00 0.000000e+00))
0.41         	((2.235590e+02 -6.456404e-04 -6.110697e-21) (3.487047e-01 -3.937440e-07 -1.809469e-21) (0.000000e+00 0.000000e+00 0.000000e+00)) ((4.074404e-21 2.627467e-21 3.166454e-05) (-3.004564e-21 -3.848180e-21 2.786773e-08) (0.000000e+00 0.000000e+00 0.000000e+00))
0.415        	((2.232969e+02 -4.846604e-04 -7.824051e-21) (3.482309e-01 -3.933496e-07 2.246856e-21) (0.000000e+00 0.000000e+00 0.000000e+00)) ((4.043207e-21 2.706851e-21 2.353983e-05) (-2.942615e-21 -3.952656e-21 2.807757e-08) (0.000000e+00 0.000000e+00 0.000000e+00))
0.42         	((2.229129e+02 -7.919928e-04 -8.431136e-21) (3.477338e-01 -3.941544e-07 4.696832e-21) (0.000000e+00 0.000000e+00 0.000000e+00)) ((3.983489e-21 2.736530e-21 3.885333e-05) (-2.887837e-21 -3.990729e-21 2.834765e-08) (0.000000e+00 0.000000e+00 0.000000e+00))
0.425        	((2.225040e+02 -6.496714e-04 -8.990195e-21) (3.472142e-01 -3.944650e-07 7.171773e-21) (0.000000e+00 0.000000e+00 0.000000e+00)) ((3.922469e-21 2.763578e-21 3.168561e-05) (-2.833873e-21 -4.027887e-21 2.859224e-08) (0.000000e+00 0.000000e+00 0.000000e+00))
0.43         	((2.221088e+02 -6.431673e-04 -9.804766e-21) (3.466728e-01 -3.947582e-07 1.015210e-20) (0.000000e+00 0.000000e+00 0.000000e+00)) ((3.867718e-21 2.801658e-21 3.130382e-05) (-2.778639e-21 -4.083171e-21 2.883411e-08) (0.000000e+00 0.000000e+00 0.000000e+00))
0.435        	((2.217075e+02 -6.658202e-04 -1.061108e-20) (3.461106e-01 -3.953175e-07 1.320722e-20) (0.000000e+00 0.000000e+00 0.000000e+00)) ((3.812604e-21 2.839146e-21 3.238004e-05) (-2.724024e-21 -4.139729e-21 2.908760e-08) (0.000000e+00 0.000000e+00 0.000000e+00))
0.44         	((2.213014e+02 -6.670756e-04 -1.138736e-20) (3.455281e-01 -3.958767e-07 1.629092e-20) (0.000000e+00 0.000000e+00 0.000000e+00)) ((3.756545e-21 2.875114e-21 3.238689e-05) (-2.670247e-21 -4.196116e-21 2.933889e-08) (0.000000e+00 0.000000e+00 0.000000e+00))
0.445        	((2.208921e+02 -6.748973e-04 -1.212889e-20) (3.449260e-01 -3.964999e-07 1.938557e-20) (0.000000e+00 0.000000e+00 0.000000e+00)) ((3.699474e-21 2.909392e-21 3.272261e-05) (-2.617423e-21 -4.251889e-21 2.959103e-08) (0.000000e+00 0.000000e+00 0.000000e+00))
0.45         	((2.204816e+02 -6.845748e-04 -1.283441e-20) (3.443051e-01 -3.972003e-07 2.247990e-20) (0.000000e+00 0.000000e+00 0.000000e+00)) ((3.641399e-21 2.941952e-21 3.315167e-05) (-2.565626e-21 -4.306849e-21 2.984447e-08) (0.000000e+00 0.000000e+00 0.000000e+00))
0.455        	((2.200713e+02 -6.953402e-04 -1.350378e-20) (3.436661e-01 -3.979811e-07 2.556453e-20) (0.000000e+00 0.000000e+00 0.000000e+00)) ((3.582371e-21 2.972810e-21 3.363566e-05) (-2.514931e-21 -4.360888e-21 3.009917e-08) (0.000000e+00 0.000000e+00 0.000000e+00))
0.46         	((2.196627e+02 -7.240985e-04 -1.413740e-20) (3.430097e-01 -3.989955e-07 2.863103e-20) (0.000000e+00 0.000000e+00 0.000000e+00)) ((3.522457e-21 3.002004e-21 3.501983e-05) (-2.465410e-21 -4.413944e-21 3.036274e-08) (0.000000e+00 0.000000e+00 0.000000e+00))
0.465        	((2.192570e+02 -7.397952e-04 -1.473605e-20) (3.423365e-01 -4.001126e-07 3.167188e-20) (0.000000e+00 0.000000e+00 0.000000e+00)) ((3.461755e-21 3.029589e-21 3.575145e-05) (-2.417133e-21 -4.465991e-21 3.062840e-08) (0.000000e+00 0.000000e+00 0.000000e+00))
0.47         	((2.188554e+02 -7.477159e-04 -1.530096e-20) (3.416474e-01 -4.012644e-07 3.468060e-20) (0.000000e+00 0.000000e+00 0.000000e+00)) ((3.400303e-21 3.055613e-21 3.609480e-05) (-2.370165e-21 -4.517045e-21 3.089258e-08) (0.000000e+00 0.000000e+00 0.000000e+00))
0.475        	((2.184589e+02 -7.627755e-04 -1.583384e-20) (3.409429e-01 -4.025112e-07 3.765227e-20) (0.000000e+00 0.000000e+00 0.000000e+00)) ((3.338255e-21 3.080184e-21 3.679560e-05) (-2.324559e-21 -4.567178e-21 3.115815e-08) (0.000000e+00 0.000000e+00 0.000000e+00))
0.48         	((2.180683e+02 -7.798587e-04 -1.633555e-20) (3.402238e-01 -4.038456e-07 4.058166e-20) (0.000000e+00 0.000000e+00 0.000000e+00)) ((3.275669e-21 3.103343e-21 3.759809e-05) (-2.280365e-21 -4.616437e-21 3.142458e-08) (0.000000e+00 0.000000e+00 0.000000e+00))
0.485        	((2.176830e+02 -7.797770e-04 -1.679385e-20) (3.394907e-01 -4.050911e-07 4.344497e-20) (0.000000e+00 0.000000e+00 0.000000e+00)) ((3.212269e-21 3.124557e-21 3.754310e-05) (-2.237703e-21 -4.664112e-21 3.168280e-08) (0.000000e+00 0.000000e+00 0.000000e+00))
0.49         	((2.173031e+02 -8.274251e-04 -1.720254e-20) (3.387442e-01 -4.067216e-07 4.623421e-20) (0.000000e+00 0.000000e+00 0.000000e+00)) ((3.147915e-21 3.143565e-21 3.987548e-05) (-2.196644e-21 -4.710105e-21 3.195678e-08) (0.000000e+00 0.000000e+00 0.000000e+00))
0.495        	((2.169291e+02 -8.800026e-04 -1.755789e-20) (3.379850e-01 -4.088036e-07 4.895197e-20) (0.000000e+00 0.000000e+00 0.000000e+00)) ((3.082462e-21 3.160223e-21 4.245520e-05) (-2.157135e-21 -4.754710e-21 3.224988e-08) (0.000000e+00 0.000000e+00 0.000000e+00))
0.5          	((2.165623e+02 -9.170813e-04 -1.785602e-20) (3.372137e-01 -4.112009e-07 5.160905e-20) (0.000000e+00 0.000000e+00 0.000000e+00)) ((3.015577e-21 3.174346e-21 4.426080e-05) (-2.119033e-21 -4.798523e-21 3.255504e-08) (0.000000e+00 0.000000e+00 0.000000e+00))
0.505        	((2.162032e+02 -8.684504e-04 -1.809273e-20) (3.364309e-01 -4.130497e-07 5.422867e-20) (0.000000e+00 0.000000e+00 0.000000e+00)) ((2.947509e-21 3.185999e-21 4.178158e-05) (-2.082077e-21 -4.842591e-21 3.282801e-08) (0.000000e+00 0.000000e+00 0.000000e+00))
0.51         	((2.158556e+02 -8.784245e-04 -1.826365e-20) (3.356372e-01 -4.149621e-07 5.685446e-20) (0.000000e+00 0.000000e+00 0.000000e+00)) ((2.876881e-21 3.194729e-21 4.223299e-05) (-2.045818e-21 -4.888748e-21 3.309968e-08) (0.000000e+00 0.000000e+00 0.000000e+00))
0.515        	((2.155218e+02 -8.802948e-04 -1.836318e-20) (3.348331e-01 -4.169081e-07 5.956745e-20) (0.000000e+00 0.000000e+00 0.000000e+00)) ((2.804000e-21 3.200800e-21 4.227903e-05) (-2.009438e-21 -4.940247e-21 3.336788e-08) (0.000000e+00 0.000000e+00 0.000000e+00))
0.52         	((2.152110e+02 -8.737011e-04 -1.838376e-20) (3.340191e-01 -4.189292e-07 6.252868e-20) (0.000000e+00 0.000000e+00 0.000000e+00)) ((2.726560e-21 3.203774e-21 4.190053e-05) (-1.971345e-21 -5.003470e-21 3.363410e-08) (0.000000e+00 0.000000e+00 0.000000e+00))
0.525        	((2.149394e+02 -8.271076e-04 -1.831158e-20) (3.331959e-01 -4.208423e-07 6.610694e-20) (0.000000e+00 0.000000e+00 0.000000e+00)) ((2.642476e-21 3.203898e-21 3.951810e-05) (-1.927874e-21 -5.092895e-21 3.388722e-08) (0.000000e+00 0.000000e+00 0.000000e+00))
0.53         	((2.147587e+02 -6.295425e-04 -1.811316e-20) (3.323641e-01 -4.220754e-07 7.140954e-20) (0.000000e+00 0.000000e+00 0.000000e+00)) ((2.542861e-21 3.201153e-21 2.957518e-05) (-1.868020e-21 -5.251988e-21 3.409380e-08) (0.000000e+00 0.000000e+00 0.000000e+00))
0.535        	((2.142273e+02 -1.665057e-03 -1.794953e-20) (3.315228e-01 -4.268590e-07 6.868189e-20) (0.000000e+00 0.000000e+00 0.000000e+00)) ((2.496742e-21 3.189020e-21 8.134485e-05) (-1.889088e-21 -5.097292e-21 3.448707e-08) (0.000000e+00 0.000000e+00 0.000000e+00))
0.54         	((2.135768e+02 -1.344683e-03 -1.781417e-20) (3.306724e-01 -4.308913e-07 6.350500e-20) (0.000000e+00 0.000000e+00 0.000000e+00)) ((2.467872e-21 3.174348e-21 6.533832e-05) (-1.935410e-21 -4.848635e-21 3.484878e-08) (0.000000e+00 0.000000e+00 0.000000e+00))
0.545        	((2.128857e+02 -2.316902e-03 -1.774027e-20) (3.298136e-01 -4.381980e-07 5.756957e-20) (0.000000e+00 0.000000e+00 0.000000e+00)) ((2.446775e-21 3.160845e-21 1.139670e-04) (-1.989356e-21 -4.572333e-21 3.539908e-08) (0.000000e+00 0.000000e+00 0.000000e+00))
0.55         	((2.121648e+02 -9.819021e-04 -1.774315e-20) (3.289471e-01 -4.407847e-07 5.099479e-20) (0.000000e+00 0.000000e+00 0.000000e+00)) ((2.433182e-21 3.149509e-21 4.723916e-05) (-2.051340e-21 -4.273078e-21 3.571038e-08) (0.000000e+00 0.000000e+00 0.000000e+00))