# Forces     
# CofR       : (5.000000e-02 0.000000e+00 0.000000e+00)
# Time       forces(pressure viscous porous) moment(pressure viscous porous)
0.005        	((3.026095e+04 3.803005e-02 -2.216176e-18) (1.531646e-02 1.424704e-08 -1.962980e-19) (0.000000e+00 0.000000e+00 0.000000e+00)) ((-1.199897e-17 -4.302154e-18 -2.075007e-03) (1.244585e-22 -1.813272e-20 -8.091645e-10) (0.000000e+00 0.000000e+00 0.000000e+00))
0.01         	((-2.911813e+02 -4.446123e-02 9.712927e-20) (1.541211e-02 -1.784058e-09 -1.478230e-21) (0.000000e+00 0.000000e+00 0.000000e+00)) ((-4.474170e-21 -7.162830e-21 2.230320e-03) (2.826791e-23 6.307687e-22 -1.041712e-11) (0.000000e+00 0.000000e+00 0.000000e+00))
0.015        	((-2.126507e+02 -1.706129e-03 9.281003e-20) (1.549190e-02 -2.651578e-09 -2.258153e-21) (0.000000e+00 0.000000e+00 0.000000e+00)) ((-2.181195e-21 -6.168188e-21 9.221070e-05) (2.991291e-23 5.677588e-22 4.009186e-11) (0.000000e+00 0.000000e+00 0.000000e+00))
0.02         	((-1.570101e+02 5.320781e-05 8.888585e-20) (1.556132e-02 -2.776437e-09 -2.985344e-21) (0.000000e+00 0.000000e+00 0.000000e+00)) ((-4.402991e-22 -5.435362e-21 3.928190e-06) (2.653406e-23 5.063398e-22 5.045992e-11) (0.000000e+00 0.000000e+00 0.000000e+00))
0.025        	((-1.145562e+02 -6.037315e-04 8.510919e-20) (1.562385e-02 -2.955599e-09 -3.137398e-21) (0.000000e+00 0.000000e+00 0.000000e+00)) ((6.937141e-22 -4.883932e-21 3.647314e-05) (-4.655550e-24 4.780001e-22 6.241135e-11) (0.000000e+00 0.000000e+00 0.000000e+00))
0.03         	((-8.073506e+01 -1.070630e-03 8.177058e-20) (1.568190e-02 -3.263301e-09 -3.286231e-21) (0.000000e+00 0.000000e+00 0.000000e+00)) ((1.558629e-21 -4.441432e-21 5.955310e-05) (-2.567338e-23 4.505222e-22 8.092729e-11) (0.000000e+00 0.000000e+00 0.000000e+00))
0.035        	((-5.286371e+01 -8.042039e-04 7.883214e-20) (1.573709e-02 -3.080484e-09 -3.470086e-21) (0.000000e+00 0.000000e+00 0.000000e+00)) ((2.192310e-21 -4.074205e-21 4.599979e-05) (-3.791328e-23 4.231803e-22 7.481113e-11) (0.000000e+00 0.000000e+00 0.000000e+00))
0.04         	((-2.920787e+01 -1.887505e-03 7.610498e-20) (1.579047e-02 -4.107475e-09 -3.491313e-21) (0.000000e+00 0.000000e+00 0.000000e+00)) ((2.575167e-21 -3.767829e-21 9.994961e-05) (-5.381432e-23 4.072554e-22 1.296071e-10) (0.000000e+00 0.000000e+00 0.000000e+00))
0.045        	((-9.103807e+00 -2.154168e-03 7.381751e-20) (1.584280e-02 -4.848232e-09 -3.789359e-21) (0.000000e+00 0.000000e+00 0.000000e+00)) ((3.013703e-21 -3.493126e-21 1.131035e-04) (-4.750758e-23 3.756081e-22 1.706269e-10) (0.000000e+00 0.000000e+00 0.000000e+00))
0.05         	((8.592711e+00 -1.310219e-03 7.159470e-20) (1.589454e-02 -5.665798e-09 -3.791606e-21) (0.000000e+00 0.000000e+00 0.000000e+00)) ((3.299617e-21 -3.256969e-21 7.073129e-05) (-6.096441e-23 3.609150e-22 2.143176e-10) (0.000000e+00 0.000000e+00 0.000000e+00))
0.055        	((2.424090e+01 -7.328321e-04 6.961678e-20) (1.594600e-02 -5.992348e-09 -3.882324e-21) (0.000000e+00 0.000000e+00 0.000000e+00)) ((3.591651e-21 -3.040346e-21 4.170695e-05) (-5.998091e-23 3.411506e-22 2.324730e-10) (0.000000e+00 0.000000e+00 0.000000e+00))
0.06         	((3.841951e+01 -7.830045e-04 6.769344e-20) (1.599734e-02 -6.317892e-09 -3.816300e-21) (0.000000e+00 0.000000e+00 0.000000e+00)) ((3.779524e-21 -2.846794e-21 4.406448e-05) (-6.527106e-23 3.312520e-22 2.505254e-10) (0.000000e+00 0.000000e+00 0.000000e+00))
0.065        	((5.109962e+01 -9.350699e-04 6.595426e-20) (1.604871e-02 -6.633244e-09 -3.862007e-21) (0.000000e+00 0.000000e+00 0.000000e+00)) ((4.032907e-21 -2.663652e-21 5.153163e-05) (-6.814603e-23 3.157165e-22 2.680222e-10) (0.000000e+00 0.000000e+00 0.000000e+00))
0.07         	((6.263567e+01 -5.180955e-04 6.429518e-20) (1.610018e-02 -6.754893e-09 -3.894449e-21) (0.000000e+00 0.000000e+00 0.000000e+00)) ((4.261787e-21 -2.492605e-21 3.055321e-05) (-7.243007e-23 3.020573e-22 2.752834e-10) (0.000000e+00 0.000000e+00 0.000000e+00))
0.075        	((7.319599e+01 -6.556562e-04 6.271557e-20) (1.615176e-02 -6.886654e-09 -3.936022e-21) (0.000000e+00 0.000000e+00 0.000000e+00)) ((4.472164e-21 -2.330825e-21 3.730794e-05) (-7.561584e-23 2.889904e-22 2.828879e-10) (0.000000e+00 0.000000e+00 0.000000e+00))
0.08         	((8.292095e+01 -7.137922e-04 6.119497e-20) (1.620344e-02 -7.031829e-09 -3.978207e-21) (0.000000e+00 0.000000e+00 0.000000e+00)) ((4.660071e-21 -2.177070e-21 4.009641e-05) (-7.842958e-23 2.768717e-22 2.909961e-10) (0.000000e+00 0.000000e+00 0.000000e+00))
0.085        	((9.207850e+01 -1.451361e-03 5.968175e-20) (1.625516e-02 -7.244280e-09 -3.958412e-21) (0.000000e+00 0.000000e+00 0.000000e+00)) ((4.751579e-21 -2.032643e-21 7.685739e-05) (-7.616505e-23 2.693784e-22 3.029032e-10) (0.000000e+00 0.000000e+00 0.000000e+00))
0.09         	((1.003177e+02 -5.525718e-05 5.829447e-20) (1.630694e-02 -7.417315e-09 -4.068964e-21) (0.000000e+00 0.000000e+00 0.000000e+00)) ((4.963480e-21 -1.889141e-21 6.945619e-06) (-8.073423e-23 2.544612e-22 3.127417e-10) (0.000000e+00 0.000000e+00 0.000000e+00))
0.095        	((1.082876e+02 -1.445894e-03 5.685993e-20) (1.635867e-02 -7.635616e-09 -4.041470e-21) (0.000000e+00 0.000000e+00 0.000000e+00)) ((5.015381e-21 -1.756097e-21 7.636741e-05) (-7.897430e-23 2.484304e-22 3.243320e-10) (0.000000e+00 0.000000e+00 0.000000e+00))
0.1          	((1.154350e+02 6.824385e-05 5.555426e-20) (1.641035e-02 -7.774751e-09 -4.156360e-21) (0.000000e+00 0.000000e+00 0.000000e+00)) ((5.206524e-21 -1.622670e-21 5.612812e-07) (-8.559269e-23 2.340355e-22 3.319594e-10) (0.000000e+00 0.000000e+00 0.000000e+00))
0.105        	((1.224174e+02 -1.532311e-03 5.420227e-20) (1.646187e-02 -8.067630e-09 -4.133717e-21) (0.000000e+00 0.000000e+00 0.000000e+00)) ((5.243661e-21 -1.499056e-21 8.048589e-05) (-8.660649e-23 2.284928e-22 3.467618e-10) (0.000000e+00 0.000000e+00 0.000000e+00))
0.11         	((1.287459e+02 1.911534e-05 5.296670e-20) (1.651321e-02 -8.161484e-09 -4.224509e-21) (0.000000e+00 0.000000e+00 0.000000e+00)) ((5.387190e-21 -1.375730e-21 2.819967e-06) (-9.379806e-23 2.164558e-22 3.516977e-10) (0.000000e+00 0.000000e+00 0.000000e+00))
0.115        	((1.348792e+02 -1.078347e-03 5.173668e-20) (1.656426e-02 -8.369547e-09 -4.230240e-21) (0.000000e+00 0.000000e+00 0.000000e+00)) ((5.432443e-21 -1.260764e-21 5.759675e-05) (-9.777390e-23 2.100337e-22 3.616234e-10) (0.000000e+00 0.000000e+00 0.000000e+00))
0.12         	((1.405511e+02 -5.859062e-04 5.062143e-20) (1.661499e-02 -8.595451e-09 -4.290800e-21) (0.000000e+00 0.000000e+00 0.000000e+00)) ((5.524513e-21 -1.149349e-21 3.288352e-05) (-1.046316e-22 2.003027e-22 3.726644e-10) (0.000000e+00 0.000000e+00 0.000000e+00))
0.125        	((1.459935e+02 -8.665814e-04 4.956279e-20) (1.666531e-02 -8.760674e-09 -4.308818e-21) (0.000000e+00 0.000000e+00 0.000000e+00)) ((5.571052e-21 -1.044227e-21 4.682612e-05) (-1.101517e-22 1.927037e-22 3.801810e-10) (0.000000e+00 0.000000e+00 0.000000e+00))
0.13         	((1.511180e+02 -5.969777e-04 4.858087e-20) (1.671515e-02 -8.898438e-09 -4.335685e-21) (0.000000e+00 0.000000e+00 0.000000e+00)) ((5.627308e-21 -9.428701e-22 3.325712e-05) (-1.164477e-22 1.836234e-22 3.863577e-10) (0.000000e+00 0.000000e+00 0.000000e+00))
0.135        	((1.560316e+02 -7.682648e-04 4.761182e-20) (1.676445e-02 -9.023583e-09 -4.338648e-21) (0.000000e+00 0.000000e+00 0.000000e+00)) ((5.665709e-21 -8.436002e-22 4.173239e-05) (-1.221914e-22 1.747362e-22 3.916820e-10) (0.000000e+00 0.000000e+00 0.000000e+00))
0.14         	((1.607643e+02 -6.807782e-04 4.660305e-20) (1.681309e-02 -9.127717e-09 -4.333637e-21) (0.000000e+00 0.000000e+00 0.000000e+00)) ((5.703746e-21 -7.423402e-22 3.726699e-05) (-1.278848e-22 1.651194e-22 3.959616e-10) (0.000000e+00 0.000000e+00 0.000000e+00))
0.145        	((1.654415e+02 -6.115659e-04 4.545887e-20) (1.686097e-02 -9.174278e-09 -4.316341e-21) (0.000000e+00 0.000000e+00 0.000000e+00)) ((5.739172e-21 -6.334779e-22 3.370773e-05) (-1.332444e-22 1.552699e-22 3.972496e-10) (0.000000e+00 0.000000e+00 0.000000e+00))
0.15         	((1.700953e+02 -6.799393e-04 4.415186e-20) (1.690794e-02 -9.247919e-09 -4.291968e-21) (0.000000e+00 0.000000e+00 0.000000e+00)) ((5.776181e-21 -5.154412e-22 3.701894e-05) (-1.383651e-22 1.450572e-22 3.999305e-10) (0.000000e+00 0.000000e+00 0.000000e+00))
0.155        	((1.747374e+02 -6.899572e-04 4.267661e-20) (1.695390e-02 -9.315210e-09 -4.261620e-21) (0.000000e+00 0.000000e+00 0.000000e+00)) ((5.815190e-21 -3.878511e-22 3.740354e-05) (-1.432056e-22 1.346183e-22 4.023537e-10) (0.000000e+00 0.000000e+00 0.000000e+00))
0.16         	((1.793663e+02 -6.932274e-04 4.103995e-20) (1.699873e-02 -9.389046e-09 -4.228150e-21) (0.000000e+00 0.000000e+00 0.000000e+00)) ((5.856672e-21 -2.513333e-22 3.744249e-05) (-1.477946e-22 1.239970e-22 4.052511e-10) (0.000000e+00 0.000000e+00 0.000000e+00))
0.165        	((1.839667e+02 -5.697002e-04 3.926165e-20) (1.704233e-02 -9.410479e-09 -4.193569e-21) (0.000000e+00 0.000000e+00 0.000000e+00)) ((5.900756e-21 -1.070054e-22 3.113446e-05) (-1.521470e-22 1.132720e-22 4.056095e-10) (0.000000e+00 0.000000e+00 0.000000e+00))
0.17         	((1.885116e+02 -5.537063e-04 3.737374e-20) (1.708459e-02 -9.423383e-09 -4.159703e-21) (0.000000e+00 0.000000e+00 0.000000e+00)) ((5.945916e-21 4.279282e-23 3.019773e-05) (-1.562827e-22 1.024931e-22 4.056486e-10) (0.000000e+00 0.000000e+00 0.000000e+00))
0.175        	((1.929637e+02 -4.024214e-04 3.541423e-20) (1.712546e-02 -9.362477e-09 -4.127049e-21) (0.000000e+00 0.000000e+00 0.000000e+00)) ((5.988382e-21 1.946925e-22 2.249309e-05) (-1.602103e-22 9.170334e-23 4.020714e-10) (0.000000e+00 0.000000e+00 0.000000e+00))
0.18         	((1.972727e+02 -4.763295e-04 3.343555e-20) (1.716488e-02 -9.330906e-09 -4.096790e-21) (0.000000e+00 0.000000e+00 0.000000e+00)) ((6.029114e-21 3.463532e-22 2.604776e-05) (-1.639423e-22 8.093402e-23 4.001439e-10) (0.000000e+00 0.000000e+00 0.000000e+00))
0.185        	((2.013944e+02 -4.349826e-04 3.148761e-20) (1.720280e-02 -9.279021e-09 -4.068197e-21) (0.000000e+00 0.000000e+00 0.000000e+00)) ((6.067516e-21 4.950470e-22 2.384220e-05) (-1.674958e-22 7.033321e-23 3.973774e-10) (0.000000e+00 0.000000e+00 0.000000e+00))
0.19         	((2.052868e+02 -4.115625e-04 2.960949e-20) (1.723921e-02 -9.206336e-09 -4.040042e-21) (0.000000e+00 0.000000e+00 0.000000e+00)) ((6.099946e-21 6.374228e-22 2.253767e-05) (-1.708820e-22 5.997067e-23 3.937614e-10) (0.000000e+00 0.000000e+00 0.000000e+00))
0.195        	((2.089158e+02 -3.840556e-04 2.783363e-20) (1.727408e-02 -9.109628e-09 -4.011652e-21) (0.000000e+00 0.000000e+00 0.000000e+00)) ((6.125027e-21 7.712808e-22 2.103539e-05) (-1.741220e-22 4.987610e-23 3.891458e-10) (0.000000e+00 0.000000e+00 0.000000e+00))
0.2          	((2.122575e+02 -3.559652e-04 2.617995e-20) (1.730742e-02 -8.990612e-09 -3.982256e-21) (0.000000e+00 0.000000e+00 0.000000e+00)) ((6.141760e-21 8.952398e-22 1.951167e-05) (-1.772213e-22 4.006394e-23 3.836343e-10) (0.000000e+00 0.000000e+00 0.000000e+00))
0.205        	((2.153012e+02 -4.079546e-04 2.465593e-20) (1.733924e-02 -8.843740e-09 -3.951223e-21) (0.000000e+00 0.000000e+00 0.000000e+00)) ((6.149691e-21 1.008735e-21 2.200014e-05) (-1.801806e-22 3.053262e-23 3.770024e-10) (0.000000e+00 0.000000e+00 0.000000e+00))
0.21         	((2.180540e+02 -3.101035e-04 2.325855e-20) (1.736953e-02 -8.673229e-09 -3.917922e-21) (0.000000e+00 0.000000e+00 0.000000e+00)) ((6.149041e-21 1.111970e-21 1.700457e-05) (-1.830243e-22 2.129789e-23 3.695582e-10) (0.000000e+00 0.000000e+00 0.000000e+00))
0.215        	((2.205297e+02 -2.065357e-04 2.197732e-20) (1.739830e-02 -8.461075e-09 -3.881828e-21) (0.000000e+00 0.000000e+00 0.000000e+00)) ((6.140345e-21 1.205626e-21 1.173053e-05) (-1.857526e-22 1.235897e-23 3.602329e-10) (0.000000e+00 0.000000e+00 0.000000e+00))
0.22         	((2.227482e+02 -2.440549e-04 2.079754e-20) (1.742556e-02 -8.257848e-09 -3.842565e-21) (0.000000e+00 0.000000e+00 0.000000e+00)) ((6.124465e-21 1.290749e-21 1.351731e-05) (-1.883661e-22 3.708599e-24 3.515483e-10) (0.000000e+00 0.000000e+00 0.000000e+00))
0.225        	((2.247325e+02 -1.661401e-04 1.970309e-20) (1.745131e-02 -8.025477e-09 -3.799827e-21) (0.000000e+00 0.000000e+00 0.000000e+00)) ((6.102381e-21 1.368488e-21 9.537877e-06) (-1.908602e-22 -4.665831e-24 3.415628e-10) (0.000000e+00 0.000000e+00 0.000000e+00))
0.23         	((2.265068e+02 -2.708350e-04 1.867824e-20) (1.747555e-02 -7.821420e-09 -3.753368e-21) (0.000000e+00 0.000000e+00 0.000000e+00)) ((6.074959e-21 1.439947e-21 1.469347e-05) (-1.932290e-22 -1.277718e-23 3.332130e-10) (0.000000e+00 0.000000e+00 0.000000e+00))
0.235        	((2.280962e+02 -1.093957e-04 1.770915e-20) (1.749829e-02 -7.539700e-09 -3.702889e-21) (0.000000e+00 0.000000e+00 0.000000e+00)) ((6.043692e-21 1.506399e-21 6.546077e-06) (-1.954716e-22 -2.062474e-23 3.212577e-10) (0.000000e+00 0.000000e+00 0.000000e+00))
0.24         	((2.295225e+02 -9.163270e-05 1.678352e-20) (1.751951e-02 -7.260488e-09 -3.648367e-21) (0.000000e+00 0.000000e+00 0.000000e+00)) ((6.008527e-21 1.568431e-21 5.585469e-06) (-1.975786e-22 -2.822922e-23 3.095380e-10) (0.000000e+00 0.000000e+00 0.000000e+00))
0.245        	((2.308060e+02 -6.959578e-05 1.588932e-20) (1.753924e-02 -6.915551e-09 -3.589192e-21) (0.000000e+00 0.000000e+00 0.000000e+00)) ((5.968794e-21 1.626426e-21 4.413380e-06) (-1.995248e-22 -3.560216e-23 2.947183e-10) (0.000000e+00 0.000000e+00 0.000000e+00))
0.25         	((2.319507e+02 -1.521457e-04 1.502904e-20) (1.755745e-02 -6.679758e-09 -3.527126e-21) (0.000000e+00 0.000000e+00 0.000000e+00)) ((5.931999e-21 1.682978e-21 8.473217e-06) (-2.013126e-22 -4.278770e-23 2.858567e-10) (0.000000e+00 0.000000e+00 0.000000e+00))
0.255        	((2.329875e+02 3.398158e-05 1.417901e-20) (1.757416e-02 -6.280592e-09 -3.459340e-21) (0.000000e+00 0.000000e+00 0.000000e+00)) ((5.887202e-21 1.735375e-21 -8.999799e-07) (-2.028989e-22 -4.975287e-23 2.686744e-10) (0.000000e+00 0.000000e+00 0.000000e+00))
0.26         	((2.339043e+02 -2.575516e-04 1.335717e-20) (1.758937e-02 -6.039634e-09 -3.389961e-21) (0.000000e+00 0.000000e+00 0.000000e+00)) ((5.849552e-21 1.788146e-21 1.361223e-05) (-2.042990e-22 -5.659972e-23 2.600012e-10) (0.000000e+00 0.000000e+00 0.000000e+00))
0.265        	((2.347401e+02 2.119070e-04 1.253059e-20) (1.760308e-02 -5.582802e-09 -3.314225e-21) (0.000000e+00 0.000000e+00 0.000000e+00)) ((5.801619e-21 1.836754e-21 -9.925270e-06) (-2.054568e-22 -6.324351e-23 2.405177e-10) (0.000000e+00 0.000000e+00 0.000000e+00))
0.27         	((2.354728e+02 -2.420507e-04 1.172821e-20) (1.761530e-02 -5.310585e-09 -3.238154e-21) (0.000000e+00 0.000000e+00 0.000000e+00)) ((5.763911e-21 1.887149e-21 1.271030e-05) (-2.064032e-22 -6.982093e-23 2.306427e-10) (0.000000e+00 0.000000e+00 0.000000e+00))
0.275        	((2.361489e+02 2.725550e-04 1.091002e-20) (1.762602e-02 -4.815194e-09 -3.155609e-21) (0.000000e+00 0.000000e+00 0.000000e+00)) ((5.714753e-21 1.933701e-21 -1.308307e-05) (-2.070711e-22 -7.619706e-23 2.096211e-10) (0.000000e+00 0.000000e+00 0.000000e+00))
0.28         	((2.367427e+02 -1.621123e-04 1.010726e-20) (1.763527e-02 -4.498704e-09 -3.073308e-21) (0.000000e+00 0.000000e+00 0.000000e+00)) ((5.676342e-21 1.982772e-21 8.588976e-06) (-2.075070e-22 -8.252980e-23 1.978582e-10) (0.000000e+00 0.000000e+00 0.000000e+00))
0.285        	((2.373017e+02 2.502067e-04 9.277839e-21) (1.764303e-02 -3.990601e-09 -2.985226e-21) (0.000000e+00 0.000000e+00 0.000000e+00)) ((5.628509e-21 2.029382e-21 -1.208966e-05) (-2.076550e-22 -8.867409e-23 1.765419e-10) (0.000000e+00 0.000000e+00 0.000000e+00))
0.29         	((2.378124e+02 -3.205691e-05 8.443693e-21) (1.764930e-02 -3.599582e-09 -2.897404e-21) (0.000000e+00 0.000000e+00 0.000000e+00)) ((5.590050e-21 2.079097e-21 1.961328e-06) (-2.075664e-22 -9.477606e-23 1.613751e-10) (0.000000e+00 0.000000e+00 0.000000e+00))
0.295        	((2.383316e+02 1.980982e-04 7.558326e-21) (1.765409e-02 -3.104432e-09 -2.805233e-21) (0.000000e+00 0.000000e+00 0.000000e+00)) ((5.546119e-21 2.129088e-21 -9.611467e-06) (-2.072084e-22 -1.007037e-22 1.411172e-10) (0.000000e+00 0.000000e+00 0.000000e+00))
0.3          	((2.388875e+02 5.778455e-05 6.610816e-21) (1.765737e-02 -2.659341e-09 -2.713487e-21) (0.000000e+00 0.000000e+00 0.000000e+00)) ((5.511611e-21 2.185190e-21 -2.664113e-06) (-2.066399e-22 -1.065567e-22 1.235988e-10) (0.000000e+00 0.000000e+00 0.000000e+00))
0.305        	((2.384146e+02 3.079681e-04 6.387352e-21) (1.765944e-02 -2.150270e-09 -2.605985e-21) (0.000000e+00 0.000000e+00 0.000000e+00)) ((5.440385e-21 2.190427e-21 -1.518869e-05) (-2.054467e-22 -1.127198e-22 1.028531e-10) (0.000000e+00 0.000000e+00 0.000000e+00))
0.31         	((2.373081e+02 2.514108e-04 6.530995e-21) (1.766049e-02 -1.634781e-09 -2.496856e-21) (0.000000e+00 0.000000e+00 0.000000e+00)) ((5.353452e-21 2.170405e-21 -1.234339e-05) (-2.038407e-22 -1.186475e-22 8.164534e-11) (0.000000e+00 0.000000e+00 0.000000e+00))
0.315        	((2.370428e+02 1.476689e-04 5.998308e-21) (1.766026e-02 -1.150020e-09 -2.378540e-21) (0.000000e+00 0.000000e+00 0.000000e+00)) ((5.291345e-21 2.193382e-21 -7.199692e-06) (-2.021083e-22 -1.247855e-22 6.215434e-11) (0.000000e+00 0.000000e+00 0.000000e+00))
0.32         	((2.350945e+02 4.358612e-04 6.586982e-21) (1.765923e-02 -5.761205e-10 -2.238639e-21) (0.000000e+00 0.000000e+00 0.000000e+00)) ((5.180144e-21 2.140511e-21 -2.155263e-05) (-1.995173e-22 -1.315415e-22 3.814725e-11) (0.000000e+00 0.000000e+00 0.000000e+00))
0.325        	((2.333174e+02 2.684433e-04 7.155161e-21) (1.765739e-02 -4.819340e-11 -2.123495e-21) (0.000000e+00 0.000000e+00 0.000000e+00)) ((5.064425e-21 2.086433e-21 -1.318261e-05) (-1.975276e-22 -1.366719e-22 1.639148e-11) (0.000000e+00 0.000000e+00 0.000000e+00))
0.33         	((2.324349e+02 1.156038e-04 6.722452e-21) (1.765437e-02 4.369733e-10 -1.922942e-21) (0.000000e+00 0.000000e+00 0.000000e+00)) ((4.990012e-21 2.098091e-21 -5.555830e-06) (-1.959605e-22 -1.456190e-22 -3.030628e-12) (0.000000e+00 0.000000e+00 0.000000e+00))
0.335        	((2.320664e+02 3.560715e-04 5.772498e-21) (1.765000e-02 1.005889e-09 -1.692961e-21) (0.000000e+00 0.000000e+00 0.000000e+00)) ((4.937542e-21 2.143408e-21 -1.761283e-05) (-1.948118e-22 -1.557957e-22 -2.651780e-11) (0.000000e+00 0.000000e+00 0.000000e+00))
0.34         	((2.305885e+02 4.667475e-04 6.058364e-21) (1.764476e-02 1.603051e-09 -1.851022e-21) (0.000000e+00 0.000000e+00 0.000000e+00)) ((4.829754e-21 2.103920e-21 -2.319820e-05) (-1.890643e-22 -1.476287e-22 -5.138028e-11) (0.000000e+00 0.000000e+00 0.000000e+00))
0.345        	((2.297669e+02 2.102758e-04 5.643066e-21) (1.763833e-02 2.143470e-09 -1.741264e-21) (0.000000e+00 0.000000e+00 0.000000e+00)) ((4.752385e-21 2.114393e-21 -1.041343e-05) (-1.859803e-22 -1.515837e-22 -7.328614e-11) (0.000000e+00 0.000000e+00 0.000000e+00))
0.35         	((2.296512e+02 2.877425e-04 4.778796e-21) (1.763047e-02 2.710509e-09 -1.616653e-21) (0.000000e+00 0.000000e+00 0.000000e+00)) ((4.698746e-21 2.158449e-21 -1.435562e-05) (-1.832032e-22 -1.561156e-22 -9.642146e-11) (0.000000e+00 0.000000e+00 0.000000e+00))
0.355        	((2.295317e+02 1.617990e-04 4.293485e-21) (1.762117e-02 3.224838e-09 -1.450635e-21) (0.000000e+00 0.000000e+00 0.000000e+00)) ((4.636723e-21 2.186168e-21 -8.118372e-06) (-1.803032e-22 -1.623869e-22 -1.168031e-10) (0.000000e+00 0.000000e+00 0.000000e+00))
0.36         	((2.291632e+02 4.734316e-04 6.198717e-21) (1.761043e-02 3.874202e-09 -1.081760e-21) (0.000000e+00 0.000000e+00 0.000000e+00)) ((4.513327e-21 2.105688e-21 -2.371136e-05) (-1.768692e-22 -1.777966e-22 -1.439800e-10) (0.000000e+00 0.000000e+00 0.000000e+00))
0.365        	((2.292511e+02 3.081891e-04 1.439685e-21) (1.759839e-02 4.432157e-09 -1.287640e-21) (0.000000e+00 0.000000e+00 0.000000e+00)) ((4.564484e-21 2.323053e-21 -1.558488e-05) (-1.746294e-22 -1.666227e-22 -1.664229e-10) (0.000000e+00 0.000000e+00 0.000000e+00))
0.37         	((2.291714e+02 -1.467295e-05 -2.924952e-22) (1.758496e-02 4.829270e-09 -1.218325e-21) (0.000000e+00 0.000000e+00 0.000000e+00)) ((4.537432e-21 2.406169e-21 4.797608e-07) (-1.718478e-22 -1.678523e-22 -1.806971e-10) (0.000000e+00 0.000000e+00 0.000000e+00))
0.375        	((2.289470e+02 2.872663e-04 -1.420338e-21) (1.757018e-02 5.385912e-09 -1.102160e-21) (0.000000e+00 0.000000e+00 0.000000e+00)) ((4.494530e-21 2.460488e-21 -1.468118e-05) (-1.689208e-22 -1.710496e-22 -2.030106e-10) (0.000000e+00 0.000000e+00 0.000000e+00))
0.38         	((2.287636e+02 3.487098e-04 -2.517522e-21) (1.755406e-02 5.985425e-09 -9.800172e-22) (0.000000e+00 0.000000e+00 0.000000e+00)) ((4.452231e-21 2.514349e-21 -1.781776e-05) (-1.659629e-22 -1.743238e-22 -2.274606e-10) (0.000000e+00 0.000000e+00 0.000000e+00))
0.385        	((2.279044e+02 4.597919e-04 -3.026844e-21) (1.753680e-02 6.565606e-09 -8.464333e-22) (0.000000e+00 0.000000e+00 0.000000e+00)) ((4.385796e-21 2.529652e-21 -2.340826e-05) (-1.628384e-22 -1.778712e-22 -2.509460e-10) (0.000000e+00 0.000000e+00 0.000000e+00))
0.39         	((2.269678e+02 3.762758e-04 -3.505630e-21) (1.751845e-02 7.165607e-09 -7.086325e-22) (0.000000e+00 0.000000e+00 0.000000e+00)) ((4.316813e-21 2.542390e-21 -1.926699e-05) (-1.596716e-22 -1.813326e-22 -2.753283e-10) (0.000000e+00 0.000000e+00 0.000000e+00))
0.395        	((2.264361e+02 3.895089e-04 -4.352598e-21) (1.749890e-02 7.771897e-09 -5.718423e-22) (0.000000e+00 0.000000e+00 0.000000e+00)) ((4.262368e-21 2.579098e-21 -1.998085e-05) (-1.565914e-22 -1.845580e-22 -3.000118e-10) (0.000000e+00 0.000000e+00 0.000000e+00))
0.4          	((2.259441e+02 3.667883e-04 -5.233928e-21) (1.747815e-02 8.383820e-09 -4.310469e-22) (0.000000e+00 0.000000e+00 0.000000e+00)) ((4.209100e-21 2.618013e-21 -1.889880e-05) (-1.535327e-22 -1.877940e-22 -3.249194e-10) (0.000000e+00 0.000000e+00 0.000000e+00))
0.405        	((2.239114e+02 5.747636e-04 -4.852260e-21) (1.745669e-02 9.027842e-09 -2.651869e-22) (0.000000e+00 0.000000e+00 0.000000e+00)) ((4.101039e-21 2.572456e-21 -2.928942e-05) (-1.501402e-22 -1.918236e-22 -3.514846e-10) (0.000000e+00 0.000000e+00 0.000000e+00))
0.41         	((2.236265e+02 3.011012e-04 -6.091261e-21) (1.743400e-02 9.612694e-09 -1.092181e-22) (0.000000e+00 0.000000e+00 0.000000e+00)) ((4.055925e-21 2.631142e-21 -1.567395e-05) (-1.470982e-22 -1.951869e-22 -3.749120e-10) (0.000000e+00 0.000000e+00 0.000000e+00))
0.415        	((2.234229e+02 6.469834e-04 -8.255486e-21) (1.741013e-02 1.029879e-08 1.300991e-22) (0.000000e+00 0.000000e+00 0.000000e+00)) ((4.035702e-21 2.730945e-21 -3.305329e-05) (-1.438229e-22 -2.018663e-22 -4.035027e-10) (0.000000e+00 0.000000e+00 0.000000e+00))
0.42         	((2.229711e+02 3.066522e-04 -8.143907e-21) (1.738507e-02 1.092416e-08 1.971201e-22) (0.000000e+00 0.000000e+00 0.000000e+00)) ((3.956652e-21 2.728681e-21 -1.607585e-05) (-1.412579e-22 -2.015291e-22 -4.290472e-10) (0.000000e+00 0.000000e+00 0.000000e+00))
0.425        	((2.225800e+02 3.776175e-04 -8.915620e-21) (1.735888e-02 1.156669e-08 3.393386e-22) (0.000000e+00 0.000000e+00 0.000000e+00)) ((3.900078e-21 2.765177e-21 -1.968029e-05) (-1.384360e-22 -2.040974e-22 -4.554029e-10) (0.000000e+00 0.000000e+00 0.000000e+00))
0.43         	((2.221862e+02 3.859144e-04 -9.752700e-21) (1.733160e-02 1.221434e-08 4.921143e-22) (0.000000e+00 0.000000e+00 0.000000e+00)) ((3.844855e-21 2.804271e-21 -2.015251e-05) (-1.356127e-22 -2.069726e-22 -4.820009e-10) (0.000000e+00 0.000000e+00 0.000000e+00))
0.435        	((2.217850e+02 3.803715e-04 -1.056506e-20) (1.730327e-02 1.285676e-08 6.475068e-22) (0.000000e+00 0.000000e+00 0.000000e+00)) ((3.788881e-21 2.842059e-21 -1.993229e-05) (-1.328260e-22 -2.098610e-22 -5.083045e-10) (0.000000e+00 0.000000e+00 0.000000e+00))
0.44         	((2.213785e+02 3.990533e-04 -1.134267e-20) (1.727392e-02 1.350445e-08 8.041266e-22) (0.000000e+00 0.000000e+00 0.000000e+00)) ((3.731798e-21 2.878111e-21 -2.092274e-05) (-1.300828e-22 -2.127249e-22 -5.348555e-10) (0.000000e+00 0.000000e+00 0.000000e+00))
0.445        	((2.209690e+02 4.067575e-04 -1.208346e-20) (1.724358e-02 1.415567e-08 9.612735e-22) (0.000000e+00 0.000000e+00 0.000000e+00)) ((3.673653e-21 2.912391e-21 -2.136375e-05) (-1.273878e-22 -2.155518e-22 -5.615822e-10) (0.000000e+00 0.000000e+00 0.000000e+00))
0.45         	((2.205583e+02 4.131947e-04 -1.278720e-20) (1.721230e-02 1.480858e-08 1.118436e-21) (0.000000e+00 0.000000e+00 0.000000e+00)) ((3.614473e-21 2.944910e-21 -2.174087e-05) (-1.247450e-22 -2.183338e-22 -5.883952e-10) (0.000000e+00 0.000000e+00 0.000000e+00))
0.455        	((2.201479e+02 4.183339e-04 -1.345422e-20) (1.718011e-02 1.546257e-08 1.275152e-21) (0.000000e+00 0.000000e+00 0.000000e+00)) ((3.554330e-21 2.975706e-21 -2.205256e-05) (-1.221581e-22 -2.210666e-22 -6.152716e-10) (0.000000e+00 0.000000e+00 0.000000e+00))
0.46         	((2.197393e+02 3.980581e-04 -1.408522e-20) (1.714705e-02 1.610630e-08 1.430993e-21) (0.000000e+00 0.000000e+00 0.000000e+00)) ((3.493319e-21 3.004833e-21 -2.109299e-05) (-1.196308e-22 -2.237476e-22 -6.416416e-10) (0.000000e+00 0.000000e+00 0.000000e+00))
0.465        	((2.193337e+02 4.122688e-04 -1.468129e-20) (1.711314e-02 1.675610e-08 1.585570e-21) (0.000000e+00 0.000000e+00 0.000000e+00)) ((3.431480e-21 3.032334e-21 -2.185722e-05) (-1.171667e-22 -2.263757e-22 -6.683337e-10) (0.000000e+00 0.000000e+00 0.000000e+00))
0.47         	((2.189323e+02 4.147817e-04 -1.524391e-20) (1.707843e-02 1.740594e-08 1.738549e-21) (0.000000e+00 0.000000e+00 0.000000e+00)) ((3.368971e-21 3.058307e-21 -2.203606e-05) (-1.147690e-22 -2.289523e-22 -6.950478e-10) (0.000000e+00 0.000000e+00 0.000000e+00))
0.475        	((2.185361e+02 4.121178e-04 -1.577508e-20) (1.704295e-02 1.805445e-08 1.889680e-21) (0.000000e+00 0.000000e+00 0.000000e+00)) ((3.305881e-21 3.082845e-21 -2.195557e-05) (-1.124401e-22 -2.314817e-22 -7.217215e-10) (0.000000e+00 0.000000e+00 0.000000e+00))
0.48         	((2.181452e+02 4.051996e-04 -1.627010e-20) (1.700673e-02 1.870100e-08 2.038241e-21) (0.000000e+00 0.000000e+00 0.000000e+00)) ((3.242141e-21 3.105748e-21 -2.166175e-05) (-1.101842e-22 -2.339488e-22 -7.483236e-10) (0.000000e+00 0.000000e+00 0.000000e+00))
0.485        	((2.177593e+02 4.013373e-04 -1.671760e-20) (1.696980e-02 1.934647e-08 2.183178e-21) (0.000000e+00 0.000000e+00 0.000000e+00)) ((3.177504e-21 3.126522e-21 -2.151989e-05) (-1.080076e-22 -2.363246e-22 -7.748991e-10) (0.000000e+00 0.000000e+00 0.000000e+00))
0.49         	((2.173786e+02 4.074295e-04 -1.711385e-20) (1.693220e-02 1.999685e-08 2.324374e-21) (0.000000e+00 0.000000e+00 0.000000e+00)) ((3.111867e-21 3.145017e-21 -2.187486e-05) (-1.059108e-22 -2.386162e-22 -8.017571e-10) (0.000000e+00 0.000000e+00 0.000000e+00))
0.495        	((2.170040e+02 3.621035e-04 -1.745496e-20) (1.689397e-02 2.062569e-08 2.462048e-21) (0.000000e+00 0.000000e+00 0.000000e+00)) ((3.045071e-21 3.161091e-21 -1.965806e-05) (-1.038894e-22 -2.408428e-22 -8.275512e-10) (0.000000e+00 0.000000e+00 0.000000e+00))
0.5          	((2.166367e+02 2.771058e-04 -1.773689e-20) (1.685512e-02 2.121235e-08 2.596893e-21) (0.000000e+00 0.000000e+00 0.000000e+00)) ((2.976745e-21 3.174553e-21 -1.545689e-05) (-1.019344e-22 -2.430411e-22 -8.512298e-10) (0.000000e+00 0.000000e+00 0.000000e+00))
0.505        	((2.162775e+02 3.861779e-04 -1.795520e-20) (1.681569e-02 2.185433e-08 2.730346e-21) (0.000000e+00 0.000000e+00 0.000000e+00)) ((2.907100e-21 3.185467e-21 -2.095861e-05) (-1.000297e-22 -2.452749e-22 -8.777583e-10) (0.000000e+00 0.000000e+00 0.000000e+00))
0.51         	((2.159306e+02 3.781425e-04 -1.810517e-20) (1.677571e-02 2.249422e-08 2.865095e-21) (0.000000e+00 0.000000e+00 0.000000e+00)) ((2.834796e-21 3.193425e-21 -2.060472e-05) (-9.814766e-23 -2.476565e-22 -9.042243e-10) (0.000000e+00 0.000000e+00 0.000000e+00))
0.515        	((2.156002e+02 3.632392e-04 -1.818063e-20) (1.673521e-02 2.312724e-08 3.006233e-21) (0.000000e+00 0.000000e+00 0.000000e+00)) ((2.759373e-21 3.198476e-21 -1.990792e-05) (-9.623678e-23 -2.503902e-22 -9.303970e-10) (0.000000e+00 0.000000e+00 0.000000e+00))
0.52         	((2.152960e+02 3.628051e-04 -1.817231e-20) (1.669421e-02 2.375948e-08 3.164297e-21) (0.000000e+00 0.000000e+00 0.000000e+00)) ((2.679342e-21 3.200618e-21 -1.993655e-05) (-9.419201e-23 -2.538923e-22 -9.566003e-10) (0.000000e+00 0.000000e+00 0.000000e+00))
0.525        	((2.150427e+02 3.727173e-04 -1.806237e-20) (1.665275e-02 2.439219e-08 3.365264e-21) (0.000000e+00 0.000000e+00 0.000000e+00)) ((2.590317e-21 3.199712e-21 -2.048819e-05) (-9.175440e-23 -2.591837e-22 -9.829140e-10) (0.000000e+00 0.000000e+00 0.000000e+00))
0.53         	((2.148991e+02 1.981111e-04 -1.781073e-20) (1.661086e-02 2.499426e-08 3.672677e-21) (0.000000e+00 0.000000e+00 0.000000e+00)) ((2.482620e-21 3.195879e-21 -1.182870e-05) (-8.828367e-23 -2.687574e-22 -1.007589e-09) (0.000000e+00 0.000000e+00 0.000000e+00))
0.535        	((2.141206e+02 2.293559e-04 -1.769298e-20) (1.656843e-02 2.560470e-08 3.264186e-21) (0.000000e+00 0.000000e+00 0.000000e+00)) ((2.472593e-21 3.178290e-21 -1.335774e-05) (-9.204716e-23 -2.502919e-22 -1.032670e-09) (0.000000e+00 0.000000e+00 0.000000e+00))
0.54         	((2.135341e+02 2.759197e-04 -1.755369e-20) (1.652558e-02 2.621891e-08 3.092328e-21) (0.000000e+00 0.000000e+00 0.000000e+00)) ((2.431859e-21 3.165529e-21 -1.568659e-05) (-9.342441e-23 -2.412626e-22 -1.057915e-09) (0.000000e+00 0.000000e+00 0.000000e+00))
0.545        	((2.126911e+02 1.419701e-04 -1.754875e-20) (1.648228e-02 2.679107e-08 2.633009e-21) (0.000000e+00 0.000000e+00 0.000000e+00)) ((2.433724e-21 3.150414e-21 -8.948252e-06) (-9.772698e-23 -2.210454e-22 -1.081037e-09) (0.000000e+00 0.000000e+00 0.000000e+00))
0.55         	((2.121733e+02 2.461219e-04 -1.752761e-20) (1.643864e-02 2.740473e-08 2.541392e-21) (0.000000e+00 0.000000e+00 0.000000e+00)) ((2.387993e-21 3.144211e-21 -1.416844e-05) (-9.836272e-23 -2.153996e-22 -1.106232e-09) (0.000000e+00 0.000000e+00 0.000000e+00))